Title: *** SPICE deck for cell 16BitC{lay} from library 16BitC
Date: Thu Aug 22 14:23:09 2024
Plotname: Operating Point
Flags: real
No. Variables: 3198
No. Points:            1
Offset:   0.0000000000000000e+000
Command: Linear Technology Corporation LTspice IV
Variables:
	0	V(net@16)	voltage
	1	V(a4)	voltage
	2	V(net@9)	voltage
	3	V(b4)	voltage
	4	V(net@91)	voltage
	5	V(aff)	voltage
	6	V(net@50)	voltage
	7	V(net@22)	voltage
	8	V(a5)	voltage
	9	V(net@99)	voltage
	10	V(b5)	voltage
	11	V(net@276)	voltage
	12	V(net@187)	voltage
	13	V(net@232)	voltage
	14	V(net@325)	voltage
	15	V(a6)	voltage
	16	V(net@319)	voltage
	17	V(b6)	voltage
	18	V(net@396)	voltage
	19	V(net@343)	voltage
	20	V(net@356)	voltage
	21	V(net@507)	voltage
	22	V(a7)	voltage
	23	V(net@501)	voltage
	24	V(b7)	voltage
	25	V(net@578)	voltage
	26	V(net@525)	voltage
	27	V(net@538)	voltage
	28	V(net@683)	voltage
	29	V(net@673)	voltage
	30	V(net@691)	voltage
	31	V(net@701)	voltage
	32	V(aaa)	voltage
	33	V(net@801)	voltage
	34	V(net@795)	voltage
	35	V(net@806)	voltage
	36	V(net@816)	voltage
	37	V(net@829)	voltage
	38	V(net@920)	voltage
	39	V(net@916)	voltage
	40	V(net@906)	voltage
	41	V(net@922)	voltage
	42	V(net@999)	voltage
	43	V(net@958)	voltage
	44	V(net@1007)	voltage
	45	V(net@980)	voltage
	46	V(net@1074)	voltage
	47	V(net@1110)	voltage
	48	V(ac)	voltage
	49	V(net@2497)	voltage
	50	V(a0)	voltage
	51	V(net@2419)	voltage
	52	V(b0)	voltage
	53	V(net@2453)	voltage
	54	V(accd)	voltage
	55	V(net@3063)	voltage
	56	V(net@2620)	voltage
	57	V(a1)	voltage
	58	V(net@2522)	voltage
	59	V(b1)	voltage
	60	V(net@2485)	voltage
	61	V(net@2535)	voltage
	62	V(net@2421)	voltage
	63	V(net@2870)	voltage
	64	V(a2)	voltage
	65	V(net@2863)	voltage
	66	V(b2)	voltage
	67	V(net@2948)	voltage
	68	V(net@2457)	voltage
	69	V(net@2446)	voltage
	70	V(net@3071)	voltage
	71	V(a3)	voltage
	72	V(net@3065)	voltage
	73	V(b3)	voltage
	74	V(net@3149)	voltage
	75	V(net@2438)	voltage
	76	V(net@2517)	voltage
	77	V(net@3264)	voltage
	78	V(net@3253)	voltage
	79	V(net@3273)	voltage
	80	V(net@3284)	voltage
	81	V(net@3255)	voltage
	82	V(net@3388)	voltage
	83	V(net@3380)	voltage
	84	V(net@3393)	voltage
	85	V(net@3404)	voltage
	86	V(net@2534)	voltage
	87	V(net@3520)	voltage
	88	V(net@2450)	voltage
	89	V(net@3504)	voltage
	90	V(net@2526)	voltage
	91	V(net@2427)	voltage
	92	V(net@2423)	voltage
	93	V(net@2428)	voltage
	94	V(net@2539)	voltage
	95	V(net@2502)	voltage
	96	V(net@2543)	voltage
	97	V(net@2546)	voltage
	98	V(net@3694)	voltage
	99	V(a8)	voltage
	100	V(net@3616)	voltage
	101	V(b8)	voltage
	102	V(net@3650)	voltage
	103	V(net@3672)	voltage
	104	V(net@4260)	voltage
	105	V(net@3817)	voltage
	106	V(a9)	voltage
	107	V(net@3719)	voltage
	108	V(b9)	voltage
	109	V(net@3682)	voltage
	110	V(net@3732)	voltage
	111	V(net@3618)	voltage
	112	V(net@4067)	voltage
	113	V(a10)	voltage
	114	V(net@4060)	voltage
	115	V(b10)	voltage
	116	V(net@4145)	voltage
	117	V(net@3654)	voltage
	118	V(net@3643)	voltage
	119	V(net@4268)	voltage
	120	V(a11)	voltage
	121	V(net@4262)	voltage
	122	V(b11)	voltage
	123	V(net@4346)	voltage
	124	V(net@3635)	voltage
	125	V(net@3714)	voltage
	126	V(net@4461)	voltage
	127	V(net@4450)	voltage
	128	V(net@4470)	voltage
	129	V(net@4481)	voltage
	130	V(as0)	voltage
	131	V(net@4585)	voltage
	132	V(net@4577)	voltage
	133	V(net@4590)	voltage
	134	V(net@4601)	voltage
	135	V(net@3731)	voltage
	136	V(net@4717)	voltage
	137	V(net@3647)	voltage
	138	V(net@4701)	voltage
	139	V(net@3723)	voltage
	140	V(net@3624)	voltage
	141	V(net@3620)	voltage
	142	V(net@3625)	voltage
	143	V(net@3736)	voltage
	144	V(net@3699)	voltage
	145	V(net@3740)	voltage
	146	V(net@3743)	voltage
	147	V(net@4869)	voltage
	148	V(net@4858)	voltage
	149	V(net@4878)	voltage
	150	V(net@4887)	voltage
	151	V(aeqb3)	voltage
	152	V(aeqb)	voltage
	153	V(net@5015)	voltage
	154	V(net@5004)	voltage
	155	V(net@5024)	voltage
	156	V(net@5033)	voltage
	157	V(net@4995)	voltage
	158	V(asd)	voltage
	159	V(net@5215)	voltage
	160	V(net@5166)	voltage
	161	V(net@5227)	voltage
	162	V(net@5198)	voltage
	163	V(net@5311)	voltage
	164	V(net@5288)	voltage
	165	V(net@5314)	voltage
	166	V(net@5382)	voltage
	167	V(net@5384)	voltage
	168	V(agtb3)	voltage
	169	V(agtb)	voltage
	170	V(net@5670)	voltage
	171	V(a12)	voltage
	172	V(net@5592)	voltage
	173	V(b12)	voltage
	174	V(net@5626)	voltage
	175	V(aeq00)	voltage
	176	V(net@6233)	voltage
	177	V(net@5790)	voltage
	178	V(a13)	voltage
	179	V(net@5695)	voltage
	180	V(b13)	voltage
	181	V(net@5658)	voltage
	182	V(aeq11)	voltage
	183	V(net@5594)	voltage
	184	V(net@6040)	voltage
	185	V(a14)	voltage
	186	V(net@6033)	voltage
	187	V(b14)	voltage
	188	V(net@6118)	voltage
	189	V(aeq22)	voltage
	190	V(net@5619)	voltage
	191	V(net@6241)	voltage
	192	V(a15)	voltage
	193	V(net@6235)	voltage
	194	V(b15)	voltage
	195	V(net@6319)	voltage
	196	V(aeq33)	voltage
	197	V(net@5690)	voltage
	198	V(net@6434)	voltage
	199	V(aneqb)	voltage
	200	V(net@6443)	voltage
	201	V(net@6454)	voltage
	202	V(net@6558)	voltage
	203	V(net@6550)	voltage
	204	V(net@6563)	voltage
	205	V(net@6574)	voltage
	206	V(net@5707)	voltage
	207	V(net@6690)	voltage
	208	V(net@5623)	voltage
	209	V(net@6674)	voltage
	210	V(net@5699)	voltage
	211	V(net@5600)	voltage
	212	V(net@5596)	voltage
	213	V(net@5601)	voltage
	214	V(net@5712)	voltage
	215	V(net@5675)	voltage
	216	V(net@5716)	voltage
	217	V(altb)	voltage
	218	V(vdd)	voltage
	219	V(net@104)	voltage
	220	V(net@139)	voltage
	221	V(net@54)	voltage
	222	V(net@289)	voltage
	223	V(net@1114)	voltage
	224	V(net@236)	voltage
	225	V(net@408)	voltage
	226	V(net@440)	voltage
	227	V(net@360)	voltage
	228	V(net@590)	voltage
	229	V(net@622)	voltage
	230	V(net@542)	voltage
	231	V(net@1071)	voltage
	232	V(net@1082)	voltage
	233	V(net@1090)	voltage
	234	V(net@2464)	voltage
	235	V(net@2668)	voltage
	236	V(net@3107)	voltage
	237	V(net@2829)	voltage
	238	V(net@2547)	voltage
	239	V(net@2771)	voltage
	240	V(net@2962)	voltage
	241	V(net@2998)	voltage
	242	V(net@2909)	voltage
	243	V(net@3163)	voltage
	244	V(net@3198)	voltage
	245	V(net@3110)	voltage
	246	V(net@2499)	voltage
	247	V(net@2511)	voltage
	248	V(net@2520)	voltage
	249	V(net@3661)	voltage
	250	V(net@3865)	voltage
	251	V(net@4304)	voltage
	252	V(net@4026)	voltage
	253	V(net@3744)	voltage
	254	V(net@3968)	voltage
	255	V(net@4159)	voltage
	256	V(net@4195)	voltage
	257	V(net@4106)	voltage
	258	V(net@4360)	voltage
	259	V(net@4395)	voltage
	260	V(net@4307)	voltage
	261	V(net@3696)	voltage
	262	V(net@3708)	voltage
	263	V(net@3717)	voltage
	264	V(net@5379)	voltage
	265	V(net@5388)	voltage
	266	V(net@5408)	voltage
	267	V(net@5637)	voltage
	268	V(net@5838)	voltage
	269	V(net@6277)	voltage
	270	V(net@5999)	voltage
	271	V(net@5720)	voltage
	272	V(net@5941)	voltage
	273	V(net@6132)	voltage
	274	V(net@6168)	voltage
	275	V(net@6079)	voltage
	276	V(net@6333)	voltage
	277	V(net@6368)	voltage
	278	V(net@6280)	voltage
	279	V(net@5672)	voltage
	280	V(net@5684)	voltage
	281	V(net@5693)	voltage
	282	V(net@6948)	voltage
	283	V(out)	voltage
	284	V(mpmos@293#dbody)	voltage
	285	V(mpmos@293#sbody)	voltage
	286	V(mpmos@292#dbody)	voltage
	287	V(mpmos@292#sbody)	voltage
	288	V(mpmos@291#dbody)	voltage
	289	V(mpmos@291#sbody)	voltage
	290	V(mpmos@290#dbody)	voltage
	291	V(mpmos@290#sbody)	voltage
	292	V(mpmos@289#dbody)	voltage
	293	V(mpmos@289#sbody)	voltage
	294	V(mpmos@288#dbody)	voltage
	295	V(mpmos@288#sbody)	voltage
	296	V(mpmos@287#dbody)	voltage
	297	V(mpmos@287#sbody)	voltage
	298	V(mpmos@286#dbody)	voltage
	299	V(mpmos@286#sbody)	voltage
	300	V(mpmos@285#dbody)	voltage
	301	V(mpmos@285#sbody)	voltage
	302	V(mpmos@284#dbody)	voltage
	303	V(mpmos@284#sbody)	voltage
	304	V(mpmos@283#dbody)	voltage
	305	V(mpmos@283#sbody)	voltage
	306	V(mpmos@282#dbody)	voltage
	307	V(mpmos@282#sbody)	voltage
	308	V(mpmos@281#dbody)	voltage
	309	V(mpmos@281#sbody)	voltage
	310	V(mpmos@280#dbody)	voltage
	311	V(mpmos@280#sbody)	voltage
	312	V(mpmos@279#dbody)	voltage
	313	V(mpmos@279#sbody)	voltage
	314	V(mpmos@278#dbody)	voltage
	315	V(mpmos@278#sbody)	voltage
	316	V(mpmos@277#dbody)	voltage
	317	V(mpmos@277#sbody)	voltage
	318	V(mpmos@276#dbody)	voltage
	319	V(mpmos@276#sbody)	voltage
	320	V(mpmos@275#dbody)	voltage
	321	V(mpmos@275#sbody)	voltage
	322	V(mpmos@274#dbody)	voltage
	323	V(mpmos@274#sbody)	voltage
	324	V(mpmos@273#dbody)	voltage
	325	V(mpmos@273#sbody)	voltage
	326	V(mpmos@272#dbody)	voltage
	327	V(mpmos@272#sbody)	voltage
	328	V(mpmos@271#dbody)	voltage
	329	V(mpmos@271#sbody)	voltage
	330	V(mpmos@270#dbody)	voltage
	331	V(mpmos@270#sbody)	voltage
	332	V(mpmos@269#dbody)	voltage
	333	V(mpmos@269#sbody)	voltage
	334	V(mpmos@268#dbody)	voltage
	335	V(mpmos@268#sbody)	voltage
	336	V(mpmos@267#dbody)	voltage
	337	V(mpmos@267#sbody)	voltage
	338	V(mpmos@266#dbody)	voltage
	339	V(mpmos@266#sbody)	voltage
	340	V(mpmos@265#dbody)	voltage
	341	V(mpmos@265#sbody)	voltage
	342	V(mpmos@264#dbody)	voltage
	343	V(mpmos@264#sbody)	voltage
	344	V(mpmos@263#dbody)	voltage
	345	V(mpmos@263#sbody)	voltage
	346	V(mpmos@262#dbody)	voltage
	347	V(mpmos@262#sbody)	voltage
	348	V(mpmos@261#dbody)	voltage
	349	V(mpmos@261#sbody)	voltage
	350	V(mpmos@260#dbody)	voltage
	351	V(mpmos@260#sbody)	voltage
	352	V(mpmos@259#dbody)	voltage
	353	V(mpmos@259#sbody)	voltage
	354	V(mpmos@258#dbody)	voltage
	355	V(mpmos@258#sbody)	voltage
	356	V(mpmos@257#dbody)	voltage
	357	V(mpmos@257#sbody)	voltage
	358	V(mpmos@256#dbody)	voltage
	359	V(mpmos@256#sbody)	voltage
	360	V(mpmos@255#dbody)	voltage
	361	V(mpmos@255#sbody)	voltage
	362	V(mpmos@254#dbody)	voltage
	363	V(mpmos@254#sbody)	voltage
	364	V(mpmos@253#dbody)	voltage
	365	V(mpmos@253#sbody)	voltage
	366	V(mpmos@252#dbody)	voltage
	367	V(mpmos@252#sbody)	voltage
	368	V(mpmos@251#dbody)	voltage
	369	V(mpmos@251#sbody)	voltage
	370	V(mpmos@250#dbody)	voltage
	371	V(mpmos@250#sbody)	voltage
	372	V(mpmos@249#dbody)	voltage
	373	V(mpmos@249#sbody)	voltage
	374	V(mpmos@248#dbody)	voltage
	375	V(mpmos@248#sbody)	voltage
	376	V(mpmos@247#dbody)	voltage
	377	V(mpmos@247#sbody)	voltage
	378	V(mpmos@246#dbody)	voltage
	379	V(mpmos@246#sbody)	voltage
	380	V(mpmos@245#dbody)	voltage
	381	V(mpmos@245#sbody)	voltage
	382	V(mpmos@244#dbody)	voltage
	383	V(mpmos@244#sbody)	voltage
	384	V(mpmos@243#dbody)	voltage
	385	V(mpmos@243#sbody)	voltage
	386	V(mpmos@242#dbody)	voltage
	387	V(mpmos@242#sbody)	voltage
	388	V(mpmos@241#dbody)	voltage
	389	V(mpmos@241#sbody)	voltage
	390	V(mpmos@240#dbody)	voltage
	391	V(mpmos@240#sbody)	voltage
	392	V(mpmos@239#dbody)	voltage
	393	V(mpmos@239#sbody)	voltage
	394	V(mpmos@238#dbody)	voltage
	395	V(mpmos@238#sbody)	voltage
	396	V(mpmos@237#dbody)	voltage
	397	V(mpmos@237#sbody)	voltage
	398	V(mpmos@236#dbody)	voltage
	399	V(mpmos@236#sbody)	voltage
	400	V(mpmos@235#dbody)	voltage
	401	V(mpmos@235#sbody)	voltage
	402	V(mpmos@234#dbody)	voltage
	403	V(mpmos@234#sbody)	voltage
	404	V(mpmos@233#dbody)	voltage
	405	V(mpmos@233#sbody)	voltage
	406	V(mpmos@232#dbody)	voltage
	407	V(mpmos@232#sbody)	voltage
	408	V(mpmos@231#dbody)	voltage
	409	V(mpmos@231#sbody)	voltage
	410	V(mpmos@230#dbody)	voltage
	411	V(mpmos@230#sbody)	voltage
	412	V(mpmos@229#dbody)	voltage
	413	V(mpmos@229#sbody)	voltage
	414	V(mpmos@228#dbody)	voltage
	415	V(mpmos@228#sbody)	voltage
	416	V(mpmos@227#dbody)	voltage
	417	V(mpmos@227#sbody)	voltage
	418	V(mpmos@226#dbody)	voltage
	419	V(mpmos@226#sbody)	voltage
	420	V(mpmos@225#dbody)	voltage
	421	V(mpmos@225#sbody)	voltage
	422	V(mpmos@224#dbody)	voltage
	423	V(mpmos@224#sbody)	voltage
	424	V(mpmos@223#dbody)	voltage
	425	V(mpmos@223#sbody)	voltage
	426	V(mpmos@222#dbody)	voltage
	427	V(mpmos@222#sbody)	voltage
	428	V(mpmos@221#dbody)	voltage
	429	V(mpmos@221#sbody)	voltage
	430	V(mpmos@220#dbody)	voltage
	431	V(mpmos@220#sbody)	voltage
	432	V(mpmos@219#dbody)	voltage
	433	V(mpmos@219#sbody)	voltage
	434	V(mpmos@218#dbody)	voltage
	435	V(mpmos@218#sbody)	voltage
	436	V(mpmos@217#dbody)	voltage
	437	V(mpmos@217#sbody)	voltage
	438	V(mpmos@216#dbody)	voltage
	439	V(mpmos@216#sbody)	voltage
	440	V(mpmos@215#dbody)	voltage
	441	V(mpmos@215#sbody)	voltage
	442	V(mpmos@214#dbody)	voltage
	443	V(mpmos@214#sbody)	voltage
	444	V(mpmos@213#dbody)	voltage
	445	V(mpmos@213#sbody)	voltage
	446	V(mpmos@212#dbody)	voltage
	447	V(mpmos@212#sbody)	voltage
	448	V(mpmos@211#dbody)	voltage
	449	V(mpmos@211#sbody)	voltage
	450	V(mpmos@210#dbody)	voltage
	451	V(mpmos@210#sbody)	voltage
	452	V(mpmos@209#dbody)	voltage
	453	V(mpmos@209#sbody)	voltage
	454	V(mpmos@208#dbody)	voltage
	455	V(mpmos@208#sbody)	voltage
	456	V(mpmos@207#dbody)	voltage
	457	V(mpmos@207#sbody)	voltage
	458	V(mpmos@206#dbody)	voltage
	459	V(mpmos@206#sbody)	voltage
	460	V(mpmos@205#dbody)	voltage
	461	V(mpmos@205#sbody)	voltage
	462	V(mpmos@204#dbody)	voltage
	463	V(mpmos@204#sbody)	voltage
	464	V(mpmos@203#dbody)	voltage
	465	V(mpmos@203#sbody)	voltage
	466	V(mpmos@202#dbody)	voltage
	467	V(mpmos@202#sbody)	voltage
	468	V(mpmos@201#dbody)	voltage
	469	V(mpmos@201#sbody)	voltage
	470	V(mpmos@200#dbody)	voltage
	471	V(mpmos@200#sbody)	voltage
	472	V(mpmos@199#dbody)	voltage
	473	V(mpmos@199#sbody)	voltage
	474	V(mpmos@198#dbody)	voltage
	475	V(mpmos@198#sbody)	voltage
	476	V(mpmos@197#dbody)	voltage
	477	V(mpmos@197#sbody)	voltage
	478	V(mpmos@196#dbody)	voltage
	479	V(mpmos@196#sbody)	voltage
	480	V(mpmos@195#dbody)	voltage
	481	V(mpmos@195#sbody)	voltage
	482	V(mpmos@194#dbody)	voltage
	483	V(mpmos@194#sbody)	voltage
	484	V(mpmos@193#dbody)	voltage
	485	V(mpmos@193#sbody)	voltage
	486	V(mpmos@192#dbody)	voltage
	487	V(mpmos@192#sbody)	voltage
	488	V(mpmos@191#dbody)	voltage
	489	V(mpmos@191#sbody)	voltage
	490	V(mpmos@190#dbody)	voltage
	491	V(mpmos@190#sbody)	voltage
	492	V(mpmos@189#dbody)	voltage
	493	V(mpmos@189#sbody)	voltage
	494	V(mpmos@188#dbody)	voltage
	495	V(mpmos@188#sbody)	voltage
	496	V(mpmos@187#dbody)	voltage
	497	V(mpmos@187#sbody)	voltage
	498	V(mpmos@186#dbody)	voltage
	499	V(mpmos@186#sbody)	voltage
	500	V(mpmos@185#dbody)	voltage
	501	V(mpmos@185#sbody)	voltage
	502	V(mpmos@184#dbody)	voltage
	503	V(mpmos@184#sbody)	voltage
	504	V(mpmos@183#dbody)	voltage
	505	V(mpmos@183#sbody)	voltage
	506	V(mpmos@182#dbody)	voltage
	507	V(mpmos@182#sbody)	voltage
	508	V(mpmos@181#dbody)	voltage
	509	V(mpmos@181#sbody)	voltage
	510	V(mpmos@180#dbody)	voltage
	511	V(mpmos@180#sbody)	voltage
	512	V(mpmos@179#dbody)	voltage
	513	V(mpmos@179#sbody)	voltage
	514	V(mpmos@178#dbody)	voltage
	515	V(mpmos@178#sbody)	voltage
	516	V(mpmos@177#dbody)	voltage
	517	V(mpmos@177#sbody)	voltage
	518	V(mpmos@176#dbody)	voltage
	519	V(mpmos@176#sbody)	voltage
	520	V(mpmos@175#dbody)	voltage
	521	V(mpmos@175#sbody)	voltage
	522	V(mpmos@174#dbody)	voltage
	523	V(mpmos@174#sbody)	voltage
	524	V(mpmos@173#dbody)	voltage
	525	V(mpmos@173#sbody)	voltage
	526	V(mpmos@172#dbody)	voltage
	527	V(mpmos@172#sbody)	voltage
	528	V(mpmos@171#dbody)	voltage
	529	V(mpmos@171#sbody)	voltage
	530	V(mpmos@170#dbody)	voltage
	531	V(mpmos@170#sbody)	voltage
	532	V(mpmos@169#dbody)	voltage
	533	V(mpmos@169#sbody)	voltage
	534	V(mpmos@168#dbody)	voltage
	535	V(mpmos@168#sbody)	voltage
	536	V(mpmos@167#dbody)	voltage
	537	V(mpmos@167#sbody)	voltage
	538	V(mpmos@166#dbody)	voltage
	539	V(mpmos@166#sbody)	voltage
	540	V(mpmos@165#dbody)	voltage
	541	V(mpmos@165#sbody)	voltage
	542	V(mpmos@164#dbody)	voltage
	543	V(mpmos@164#sbody)	voltage
	544	V(mpmos@163#dbody)	voltage
	545	V(mpmos@163#sbody)	voltage
	546	V(mpmos@162#dbody)	voltage
	547	V(mpmos@162#sbody)	voltage
	548	V(mpmos@161#dbody)	voltage
	549	V(mpmos@161#sbody)	voltage
	550	V(mpmos@160#dbody)	voltage
	551	V(mpmos@160#sbody)	voltage
	552	V(mpmos@159#dbody)	voltage
	553	V(mpmos@159#sbody)	voltage
	554	V(mpmos@158#dbody)	voltage
	555	V(mpmos@158#sbody)	voltage
	556	V(mpmos@157#dbody)	voltage
	557	V(mpmos@157#sbody)	voltage
	558	V(mpmos@156#dbody)	voltage
	559	V(mpmos@156#sbody)	voltage
	560	V(mpmos@155#dbody)	voltage
	561	V(mpmos@155#sbody)	voltage
	562	V(mpmos@154#dbody)	voltage
	563	V(mpmos@154#sbody)	voltage
	564	V(mpmos@153#dbody)	voltage
	565	V(mpmos@153#sbody)	voltage
	566	V(mpmos@152#dbody)	voltage
	567	V(mpmos@152#sbody)	voltage
	568	V(mpmos@151#dbody)	voltage
	569	V(mpmos@151#sbody)	voltage
	570	V(mpmos@150#dbody)	voltage
	571	V(mpmos@150#sbody)	voltage
	572	V(mpmos@149#dbody)	voltage
	573	V(mpmos@149#sbody)	voltage
	574	V(mpmos@148#dbody)	voltage
	575	V(mpmos@148#sbody)	voltage
	576	V(mpmos@147#dbody)	voltage
	577	V(mpmos@147#sbody)	voltage
	578	V(mpmos@146#dbody)	voltage
	579	V(mpmos@146#sbody)	voltage
	580	V(mpmos@145#dbody)	voltage
	581	V(mpmos@145#sbody)	voltage
	582	V(mpmos@144#dbody)	voltage
	583	V(mpmos@144#sbody)	voltage
	584	V(mpmos@143#dbody)	voltage
	585	V(mpmos@143#sbody)	voltage
	586	V(mpmos@142#dbody)	voltage
	587	V(mpmos@142#sbody)	voltage
	588	V(mpmos@141#dbody)	voltage
	589	V(mpmos@141#sbody)	voltage
	590	V(mpmos@140#dbody)	voltage
	591	V(mpmos@140#sbody)	voltage
	592	V(mpmos@139#dbody)	voltage
	593	V(mpmos@139#sbody)	voltage
	594	V(mpmos@138#dbody)	voltage
	595	V(mpmos@138#sbody)	voltage
	596	V(mpmos@137#dbody)	voltage
	597	V(mpmos@137#sbody)	voltage
	598	V(mpmos@136#dbody)	voltage
	599	V(mpmos@136#sbody)	voltage
	600	V(mpmos@135#dbody)	voltage
	601	V(mpmos@135#sbody)	voltage
	602	V(mpmos@134#dbody)	voltage
	603	V(mpmos@134#sbody)	voltage
	604	V(mpmos@133#dbody)	voltage
	605	V(mpmos@133#sbody)	voltage
	606	V(mpmos@132#dbody)	voltage
	607	V(mpmos@132#sbody)	voltage
	608	V(mpmos@131#dbody)	voltage
	609	V(mpmos@131#sbody)	voltage
	610	V(mpmos@130#dbody)	voltage
	611	V(mpmos@130#sbody)	voltage
	612	V(mpmos@129#dbody)	voltage
	613	V(mpmos@129#sbody)	voltage
	614	V(mpmos@128#dbody)	voltage
	615	V(mpmos@128#sbody)	voltage
	616	V(mpmos@127#dbody)	voltage
	617	V(mpmos@127#sbody)	voltage
	618	V(mpmos@126#dbody)	voltage
	619	V(mpmos@126#sbody)	voltage
	620	V(mpmos@125#dbody)	voltage
	621	V(mpmos@125#sbody)	voltage
	622	V(mpmos@124#dbody)	voltage
	623	V(mpmos@124#sbody)	voltage
	624	V(mpmos@123#dbody)	voltage
	625	V(mpmos@123#sbody)	voltage
	626	V(mpmos@122#dbody)	voltage
	627	V(mpmos@122#sbody)	voltage
	628	V(mpmos@121#dbody)	voltage
	629	V(mpmos@121#sbody)	voltage
	630	V(mpmos@120#dbody)	voltage
	631	V(mpmos@120#sbody)	voltage
	632	V(mpmos@119#dbody)	voltage
	633	V(mpmos@119#sbody)	voltage
	634	V(mpmos@118#dbody)	voltage
	635	V(mpmos@118#sbody)	voltage
	636	V(mpmos@117#dbody)	voltage
	637	V(mpmos@117#sbody)	voltage
	638	V(mpmos@116#dbody)	voltage
	639	V(mpmos@116#sbody)	voltage
	640	V(mpmos@115#dbody)	voltage
	641	V(mpmos@115#sbody)	voltage
	642	V(mpmos@114#dbody)	voltage
	643	V(mpmos@114#sbody)	voltage
	644	V(mpmos@113#dbody)	voltage
	645	V(mpmos@113#sbody)	voltage
	646	V(mpmos@112#dbody)	voltage
	647	V(mpmos@112#sbody)	voltage
	648	V(mpmos@111#dbody)	voltage
	649	V(mpmos@111#sbody)	voltage
	650	V(mpmos@110#dbody)	voltage
	651	V(mpmos@110#sbody)	voltage
	652	V(mpmos@109#dbody)	voltage
	653	V(mpmos@109#sbody)	voltage
	654	V(mpmos@108#dbody)	voltage
	655	V(mpmos@108#sbody)	voltage
	656	V(mpmos@53#dbody)	voltage
	657	V(mpmos@53#sbody)	voltage
	658	V(mpmos@52#dbody)	voltage
	659	V(mpmos@52#sbody)	voltage
	660	V(mpmos@51#dbody)	voltage
	661	V(mpmos@51#sbody)	voltage
	662	V(mpmos@50#dbody)	voltage
	663	V(mpmos@50#sbody)	voltage
	664	V(mpmos@49#dbody)	voltage
	665	V(mpmos@49#sbody)	voltage
	666	V(mpmos@48#dbody)	voltage
	667	V(mpmos@48#sbody)	voltage
	668	V(mpmos@47#dbody)	voltage
	669	V(mpmos@47#sbody)	voltage
	670	V(mpmos@46#dbody)	voltage
	671	V(mpmos@46#sbody)	voltage
	672	V(mpmos@45#dbody)	voltage
	673	V(mpmos@45#sbody)	voltage
	674	V(mpmos@44#dbody)	voltage
	675	V(mpmos@44#sbody)	voltage
	676	V(mpmos@43#dbody)	voltage
	677	V(mpmos@43#sbody)	voltage
	678	V(mpmos@42#dbody)	voltage
	679	V(mpmos@42#sbody)	voltage
	680	V(mpmos@41#dbody)	voltage
	681	V(mpmos@41#sbody)	voltage
	682	V(mpmos@40#dbody)	voltage
	683	V(mpmos@40#sbody)	voltage
	684	V(mpmos@39#dbody)	voltage
	685	V(mpmos@39#sbody)	voltage
	686	V(mpmos@38#dbody)	voltage
	687	V(mpmos@38#sbody)	voltage
	688	V(mpmos@37#dbody)	voltage
	689	V(mpmos@37#sbody)	voltage
	690	V(mpmos@36#dbody)	voltage
	691	V(mpmos@36#sbody)	voltage
	692	V(mpmos@35#dbody)	voltage
	693	V(mpmos@35#sbody)	voltage
	694	V(mpmos@34#dbody)	voltage
	695	V(mpmos@34#sbody)	voltage
	696	V(mpmos@33#dbody)	voltage
	697	V(mpmos@33#sbody)	voltage
	698	V(mpmos@32#dbody)	voltage
	699	V(mpmos@32#sbody)	voltage
	700	V(mpmos@31#dbody)	voltage
	701	V(mpmos@31#sbody)	voltage
	702	V(mpmos@30#dbody)	voltage
	703	V(mpmos@30#sbody)	voltage
	704	V(mpmos@29#dbody)	voltage
	705	V(mpmos@29#sbody)	voltage
	706	V(mpmos@28#dbody)	voltage
	707	V(mpmos@28#sbody)	voltage
	708	V(mpmos@27#dbody)	voltage
	709	V(mpmos@27#sbody)	voltage
	710	V(mpmos@26#dbody)	voltage
	711	V(mpmos@26#sbody)	voltage
	712	V(mpmos@25#dbody)	voltage
	713	V(mpmos@25#sbody)	voltage
	714	V(mpmos@24#dbody)	voltage
	715	V(mpmos@24#sbody)	voltage
	716	V(mpmos@23#dbody)	voltage
	717	V(mpmos@23#sbody)	voltage
	718	V(mpmos@22#dbody)	voltage
	719	V(mpmos@22#sbody)	voltage
	720	V(mpmos@21#dbody)	voltage
	721	V(mpmos@21#sbody)	voltage
	722	V(mpmos@20#dbody)	voltage
	723	V(mpmos@20#sbody)	voltage
	724	V(mpmos@19#dbody)	voltage
	725	V(mpmos@19#sbody)	voltage
	726	V(mpmos@18#dbody)	voltage
	727	V(mpmos@18#sbody)	voltage
	728	V(mpmos@17#dbody)	voltage
	729	V(mpmos@17#sbody)	voltage
	730	V(mpmos@16#dbody)	voltage
	731	V(mpmos@16#sbody)	voltage
	732	V(mpmos@15#dbody)	voltage
	733	V(mpmos@15#sbody)	voltage
	734	V(mpmos@14#dbody)	voltage
	735	V(mpmos@14#sbody)	voltage
	736	V(mpmos@13#dbody)	voltage
	737	V(mpmos@13#sbody)	voltage
	738	V(mpmos@12#dbody)	voltage
	739	V(mpmos@12#sbody)	voltage
	740	V(mpmos@11#dbody)	voltage
	741	V(mpmos@11#sbody)	voltage
	742	V(mpmos@10#dbody)	voltage
	743	V(mpmos@10#sbody)	voltage
	744	V(mpmos@9#dbody)	voltage
	745	V(mpmos@9#sbody)	voltage
	746	V(mpmos@8#dbody)	voltage
	747	V(mpmos@8#sbody)	voltage
	748	V(mpmos@7#dbody)	voltage
	749	V(mpmos@7#sbody)	voltage
	750	V(mpmos@6#dbody)	voltage
	751	V(mpmos@6#sbody)	voltage
	752	V(mpmos@5#dbody)	voltage
	753	V(mpmos@5#sbody)	voltage
	754	V(mpmos@4#dbody)	voltage
	755	V(mpmos@4#sbody)	voltage
	756	V(mpmos@3#dbody)	voltage
	757	V(mpmos@3#sbody)	voltage
	758	V(mpmos@2#dbody)	voltage
	759	V(mpmos@2#sbody)	voltage
	760	V(mpmos@1#dbody)	voltage
	761	V(mpmos@1#sbody)	voltage
	762	V(mpmos@0#dbody)	voltage
	763	V(mpmos@0#sbody)	voltage
	764	V(mnmos@293#dbody)	voltage
	765	V(mnmos@293#sbody)	voltage
	766	V(mnmos@292#dbody)	voltage
	767	V(mnmos@292#sbody)	voltage
	768	V(mnmos@291#dbody)	voltage
	769	V(mnmos@291#sbody)	voltage
	770	V(mnmos@290#dbody)	voltage
	771	V(mnmos@290#sbody)	voltage
	772	V(mnmos@289#dbody)	voltage
	773	V(mnmos@289#sbody)	voltage
	774	V(mnmos@288#dbody)	voltage
	775	V(mnmos@288#sbody)	voltage
	776	V(mnmos@287#dbody)	voltage
	777	V(mnmos@287#sbody)	voltage
	778	V(mnmos@286#dbody)	voltage
	779	V(mnmos@286#sbody)	voltage
	780	V(mnmos@285#dbody)	voltage
	781	V(mnmos@285#sbody)	voltage
	782	V(mnmos@284#dbody)	voltage
	783	V(mnmos@284#sbody)	voltage
	784	V(mnmos@283#dbody)	voltage
	785	V(mnmos@283#sbody)	voltage
	786	V(mnmos@282#dbody)	voltage
	787	V(mnmos@282#sbody)	voltage
	788	V(mnmos@281#dbody)	voltage
	789	V(mnmos@281#sbody)	voltage
	790	V(mnmos@280#dbody)	voltage
	791	V(mnmos@280#sbody)	voltage
	792	V(mnmos@279#dbody)	voltage
	793	V(mnmos@279#sbody)	voltage
	794	V(mnmos@278#dbody)	voltage
	795	V(mnmos@278#sbody)	voltage
	796	V(mnmos@277#dbody)	voltage
	797	V(mnmos@277#sbody)	voltage
	798	V(mnmos@276#dbody)	voltage
	799	V(mnmos@276#sbody)	voltage
	800	V(mnmos@275#dbody)	voltage
	801	V(mnmos@275#sbody)	voltage
	802	V(mnmos@274#dbody)	voltage
	803	V(mnmos@274#sbody)	voltage
	804	V(mnmos@273#dbody)	voltage
	805	V(mnmos@273#sbody)	voltage
	806	V(mnmos@272#dbody)	voltage
	807	V(mnmos@272#sbody)	voltage
	808	V(mnmos@271#dbody)	voltage
	809	V(mnmos@271#sbody)	voltage
	810	V(mnmos@270#dbody)	voltage
	811	V(mnmos@270#sbody)	voltage
	812	V(mnmos@269#dbody)	voltage
	813	V(mnmos@269#sbody)	voltage
	814	V(mnmos@268#dbody)	voltage
	815	V(mnmos@268#sbody)	voltage
	816	V(mnmos@267#dbody)	voltage
	817	V(mnmos@267#sbody)	voltage
	818	V(mnmos@266#dbody)	voltage
	819	V(mnmos@266#sbody)	voltage
	820	V(mnmos@265#dbody)	voltage
	821	V(mnmos@265#sbody)	voltage
	822	V(mnmos@264#dbody)	voltage
	823	V(mnmos@264#sbody)	voltage
	824	V(mnmos@263#dbody)	voltage
	825	V(mnmos@263#sbody)	voltage
	826	V(mnmos@262#dbody)	voltage
	827	V(mnmos@262#sbody)	voltage
	828	V(mnmos@261#dbody)	voltage
	829	V(mnmos@261#sbody)	voltage
	830	V(mnmos@260#dbody)	voltage
	831	V(mnmos@260#sbody)	voltage
	832	V(mnmos@259#dbody)	voltage
	833	V(mnmos@259#sbody)	voltage
	834	V(mnmos@258#dbody)	voltage
	835	V(mnmos@258#sbody)	voltage
	836	V(mnmos@257#dbody)	voltage
	837	V(mnmos@257#sbody)	voltage
	838	V(mnmos@256#dbody)	voltage
	839	V(mnmos@256#sbody)	voltage
	840	V(mnmos@255#dbody)	voltage
	841	V(mnmos@255#sbody)	voltage
	842	V(mnmos@254#dbody)	voltage
	843	V(mnmos@254#sbody)	voltage
	844	V(mnmos@253#dbody)	voltage
	845	V(mnmos@253#sbody)	voltage
	846	V(mnmos@252#dbody)	voltage
	847	V(mnmos@252#sbody)	voltage
	848	V(mnmos@251#dbody)	voltage
	849	V(mnmos@251#sbody)	voltage
	850	V(mnmos@250#dbody)	voltage
	851	V(mnmos@250#sbody)	voltage
	852	V(mnmos@249#dbody)	voltage
	853	V(mnmos@249#sbody)	voltage
	854	V(mnmos@248#dbody)	voltage
	855	V(mnmos@248#sbody)	voltage
	856	V(mnmos@247#dbody)	voltage
	857	V(mnmos@247#sbody)	voltage
	858	V(mnmos@246#dbody)	voltage
	859	V(mnmos@246#sbody)	voltage
	860	V(mnmos@245#dbody)	voltage
	861	V(mnmos@245#sbody)	voltage
	862	V(mnmos@244#dbody)	voltage
	863	V(mnmos@244#sbody)	voltage
	864	V(mnmos@243#dbody)	voltage
	865	V(mnmos@243#sbody)	voltage
	866	V(mnmos@242#dbody)	voltage
	867	V(mnmos@242#sbody)	voltage
	868	V(mnmos@241#dbody)	voltage
	869	V(mnmos@241#sbody)	voltage
	870	V(mnmos@240#dbody)	voltage
	871	V(mnmos@240#sbody)	voltage
	872	V(mnmos@239#dbody)	voltage
	873	V(mnmos@239#sbody)	voltage
	874	V(mnmos@238#dbody)	voltage
	875	V(mnmos@238#sbody)	voltage
	876	V(mnmos@237#dbody)	voltage
	877	V(mnmos@237#sbody)	voltage
	878	V(mnmos@236#dbody)	voltage
	879	V(mnmos@236#sbody)	voltage
	880	V(mnmos@235#dbody)	voltage
	881	V(mnmos@235#sbody)	voltage
	882	V(mnmos@234#dbody)	voltage
	883	V(mnmos@234#sbody)	voltage
	884	V(mnmos@233#dbody)	voltage
	885	V(mnmos@233#sbody)	voltage
	886	V(mnmos@232#dbody)	voltage
	887	V(mnmos@232#sbody)	voltage
	888	V(mnmos@231#dbody)	voltage
	889	V(mnmos@231#sbody)	voltage
	890	V(mnmos@230#dbody)	voltage
	891	V(mnmos@230#sbody)	voltage
	892	V(mnmos@229#dbody)	voltage
	893	V(mnmos@229#sbody)	voltage
	894	V(mnmos@228#dbody)	voltage
	895	V(mnmos@228#sbody)	voltage
	896	V(mnmos@227#dbody)	voltage
	897	V(mnmos@227#sbody)	voltage
	898	V(mnmos@226#dbody)	voltage
	899	V(mnmos@226#sbody)	voltage
	900	V(mnmos@225#dbody)	voltage
	901	V(mnmos@225#sbody)	voltage
	902	V(mnmos@224#dbody)	voltage
	903	V(mnmos@224#sbody)	voltage
	904	V(mnmos@223#dbody)	voltage
	905	V(mnmos@223#sbody)	voltage
	906	V(mnmos@222#dbody)	voltage
	907	V(mnmos@222#sbody)	voltage
	908	V(mnmos@221#dbody)	voltage
	909	V(mnmos@221#sbody)	voltage
	910	V(mnmos@220#dbody)	voltage
	911	V(mnmos@220#sbody)	voltage
	912	V(mnmos@219#dbody)	voltage
	913	V(mnmos@219#sbody)	voltage
	914	V(mnmos@218#dbody)	voltage
	915	V(mnmos@218#sbody)	voltage
	916	V(mnmos@217#dbody)	voltage
	917	V(mnmos@217#sbody)	voltage
	918	V(mnmos@216#dbody)	voltage
	919	V(mnmos@216#sbody)	voltage
	920	V(mnmos@215#dbody)	voltage
	921	V(mnmos@215#sbody)	voltage
	922	V(mnmos@214#dbody)	voltage
	923	V(mnmos@214#sbody)	voltage
	924	V(mnmos@213#dbody)	voltage
	925	V(mnmos@213#sbody)	voltage
	926	V(mnmos@212#dbody)	voltage
	927	V(mnmos@212#sbody)	voltage
	928	V(mnmos@211#dbody)	voltage
	929	V(mnmos@211#sbody)	voltage
	930	V(mnmos@210#dbody)	voltage
	931	V(mnmos@210#sbody)	voltage
	932	V(mnmos@209#dbody)	voltage
	933	V(mnmos@209#sbody)	voltage
	934	V(mnmos@208#dbody)	voltage
	935	V(mnmos@208#sbody)	voltage
	936	V(mnmos@207#dbody)	voltage
	937	V(mnmos@207#sbody)	voltage
	938	V(mnmos@206#dbody)	voltage
	939	V(mnmos@206#sbody)	voltage
	940	V(mnmos@205#dbody)	voltage
	941	V(mnmos@205#sbody)	voltage
	942	V(mnmos@204#dbody)	voltage
	943	V(mnmos@204#sbody)	voltage
	944	V(mnmos@203#dbody)	voltage
	945	V(mnmos@203#sbody)	voltage
	946	V(mnmos@202#dbody)	voltage
	947	V(mnmos@202#sbody)	voltage
	948	V(mnmos@201#dbody)	voltage
	949	V(mnmos@201#sbody)	voltage
	950	V(mnmos@200#dbody)	voltage
	951	V(mnmos@200#sbody)	voltage
	952	V(mnmos@199#dbody)	voltage
	953	V(mnmos@199#sbody)	voltage
	954	V(mnmos@198#dbody)	voltage
	955	V(mnmos@198#sbody)	voltage
	956	V(mnmos@197#dbody)	voltage
	957	V(mnmos@197#sbody)	voltage
	958	V(mnmos@196#dbody)	voltage
	959	V(mnmos@196#sbody)	voltage
	960	V(mnmos@195#dbody)	voltage
	961	V(mnmos@195#sbody)	voltage
	962	V(mnmos@194#dbody)	voltage
	963	V(mnmos@194#sbody)	voltage
	964	V(mnmos@193#dbody)	voltage
	965	V(mnmos@193#sbody)	voltage
	966	V(mnmos@192#dbody)	voltage
	967	V(mnmos@192#sbody)	voltage
	968	V(mnmos@191#dbody)	voltage
	969	V(mnmos@191#sbody)	voltage
	970	V(mnmos@190#dbody)	voltage
	971	V(mnmos@190#sbody)	voltage
	972	V(mnmos@189#dbody)	voltage
	973	V(mnmos@189#sbody)	voltage
	974	V(mnmos@188#dbody)	voltage
	975	V(mnmos@188#sbody)	voltage
	976	V(mnmos@187#dbody)	voltage
	977	V(mnmos@187#sbody)	voltage
	978	V(mnmos@186#dbody)	voltage
	979	V(mnmos@186#sbody)	voltage
	980	V(mnmos@185#dbody)	voltage
	981	V(mnmos@185#sbody)	voltage
	982	V(mnmos@184#dbody)	voltage
	983	V(mnmos@184#sbody)	voltage
	984	V(mnmos@183#dbody)	voltage
	985	V(mnmos@183#sbody)	voltage
	986	V(mnmos@182#dbody)	voltage
	987	V(mnmos@182#sbody)	voltage
	988	V(mnmos@181#dbody)	voltage
	989	V(mnmos@181#sbody)	voltage
	990	V(mnmos@180#dbody)	voltage
	991	V(mnmos@180#sbody)	voltage
	992	V(mnmos@179#dbody)	voltage
	993	V(mnmos@179#sbody)	voltage
	994	V(mnmos@178#dbody)	voltage
	995	V(mnmos@178#sbody)	voltage
	996	V(mnmos@177#dbody)	voltage
	997	V(mnmos@177#sbody)	voltage
	998	V(mnmos@176#dbody)	voltage
	999	V(mnmos@176#sbody)	voltage
	1000	V(mnmos@175#dbody)	voltage
	1001	V(mnmos@175#sbody)	voltage
	1002	V(mnmos@174#dbody)	voltage
	1003	V(mnmos@174#sbody)	voltage
	1004	V(mnmos@173#dbody)	voltage
	1005	V(mnmos@173#sbody)	voltage
	1006	V(mnmos@172#dbody)	voltage